(written by ASE)

32 atoms
2 atom types

0.0      7.2199999999999998  xlo xhi
0.0      7.2199999999999998  ylo yhi
0.0      7.2199999999999998  zlo zhi

Atoms # atomic

     1   2                  2.0722      6.8944000000000001      4.1256000000000004
     2   1      3.5922999999999998                  1.7706      3.1421999999999999
     3   2      5.6965000000000003      5.8559999999999999      1.6302000000000001
     4   1                  1.1049      5.1536999999999997                  6.9432
     5   2      5.3291000000000004    0.084099999999999994    0.023699999999999999
     6   1      6.9115000000000002      6.2579000000000002      6.8071000000000002
     7   2     0.93179999999999996      3.6682999999999999      3.3170000000000002
     8   1      4.9635999999999996      2.1880000000000002      6.4710000000000001
     9   2      5.9501999999999997     0.81730000000000003     0.62790000000000001
    10   1      5.7840999999999996      2.8496999999999999      3.4792999999999998
    11   2      4.6890000000000001      1.1963999999999999      1.4845999999999999
    12   1      2.4853999999999998      1.0775999999999999      4.6584000000000003
    13   2      2.7328999999999999      4.4024000000000001      6.6043000000000003
    14   1                  2.2355      6.9130000000000003      2.1594000000000002
    15   2     0.74129999999999996      5.7149999999999999      2.4136000000000002
    16   1     0.90029999999999999                  2.8371      3.7896000000000001
    17   2      5.9722999999999997                  1.1048      6.9391999999999996
    18   1      2.1095000000000002                   1.825   0.0094999999999999998
    19   2      1.2997000000000001      1.5872999999999999      2.0804999999999998
    20   1                  3.6191      4.1745000000000001      2.1669999999999998
    21   2      5.9249999999999998      1.3835999999999999                   3.835
    22   1      1.6283000000000001      2.3921999999999999      5.5159000000000002
    23   2      2.0133000000000001                  0.2571      6.3284000000000002
    24   1    0.096000000000000002      2.0796000000000001      3.2574999999999998
    25   2      3.5847000000000002      3.7682000000000002      3.8875999999999999
    26   1      6.1058000000000003                  5.0023      5.3826999999999998
    27   2                  1.8365      2.1038000000000001      3.7810000000000001
    28   1     0.37890000000000001      2.4083999999999999      4.3937999999999997
    29   2      6.4044999999999996      6.2633999999999999                  0.3362
    30   1      3.1299999999999999      4.4085999999999999     0.77280000000000004
    31   2      2.8323999999999998      1.7593000000000001      6.0378999999999996
    32   1                  3.5303                  4.5427      4.7823000000000002
