ITEM: TIMESTEP
0
ITEM: NUMBER OF ATOMS
32
ITEM: BOX BOUNDS pp pp pp
0.0000000000000000e+00 7.2199999999999998e+00
0.0000000000000000e+00 7.2199999999999998e+00
0.0000000000000000e+00 7.2199999999999998e+00
ITEM: ATOMS id type x y z fx fy fz
1 2 2.0722 6.8944 4.1256 -10.0704 -33.2301 -9.05195
2 1 3.5923 1.7706 3.1422 6.38267 -0.502352 -2.67214
3 2 5.6965 5.856 1.6302 -31.8231 -18.3117 58.1625
4 1 1.1049 5.1537 6.9432 -3.44249 -0.282771 2.49857
5 2 5.3291 0.0841 0.0237 -350.744 -355.666 -148.576
6 1 6.9115 6.2579 6.8071 295.76 -0.603638 -440.825
7 2 0.9318 3.6683 3.317 18.0319 396.217 -218.959
8 1 4.9636 2.188 6.471 -24.3644 26.1659 -11.315
9 2 5.9502 0.8173 0.6279 213.331 -12.9945 896.1
10 1 5.7841 2.8497 3.4793 -13.9695 46.9665 -9.11194
11 2 4.689 1.1964 1.4846 -48.468 17.9601 36.3637
12 1 2.4854 1.0776 4.6584 26.7208 -17.3426 2.93796
13 2 2.7329 4.4024 6.6043 -7.67987 -4.74155 -54.5521
14 1 2.2355 6.913 2.1594 4.41168 2.77281 -4.20268
15 2 0.7413 5.715 2.4136 -3.91796 -3.14129 0.666541
16 1 0.9003 2.8371 3.7896 77.9959 -83.3297 46.9968
17 2 5.9723 1.1048 6.9392 155.012 387.392 -784.363
18 1 2.1095 1.825 0.0095 -34.117 11.5287 69.4819
19 2 1.2997 1.5873 2.0805 6.23803 -7.85865 -23.2303
20 1 3.6191 4.1745 2.167 9.47094 -1.13786 12.3915
21 2 5.925 1.3836 3.835 -17.3739 -52.9846 18.0704
22 1 1.6283 2.3922 5.5159 -40.727 32.4403 5.23118
23 2 2.0133 0.2571 6.3284 -14.9949 -36.0318 3.85675
24 1 0.096 2.0796 3.2575 -66.1654 -70.5119 -110.988
25 2 3.5847 3.7682 3.8876 6.98562 -106.414 -105.538
26 1 6.1058 5.0023 5.3827 -0.302386 -0.471237 -0.534589
27 2 1.8365 2.1038 3.781 145.234 -77.5757 -31.8633
28 1 0.3789 2.4084 4.3938 -185.941 -118.846 278.386
29 2 6.4045 6.2634 0.3362 -213.66 -39.2096 393.525
30 1 3.13 4.4086 0.7728 6.615 4.64773 29.0703
31 2 2.8324 1.7593 6.0379 101.668 11.489 -14.743
32 1 3.5303 4.5427 4.7823 -6.09738 103.607 116.787
